# vtk DataFile Version 4.0
Nusif backstep0
ASCII
DATASET STRUCTURED_POINTS
DIMENSIONS 100 50 1
ORIGIN 0 0 0 
SPACING 0.300000 0.280000 1
POINT_DATA 5000

VECTORS Velocity_magnitude double
0.9598200237606 0.0123291881211 0
0.8922745111680 0.0112091991768 0
0.8390543246227 0.0097990376267 0
0.7891922237826 0.0080749834569 0
0.7435012895486 0.0059059461420 0
0.7032272907201 0.0030191741633 0
0.6706284115213 -0.0012575020344 0
0.6484874029480 -0.0067415085654 0
0.6390004688535 -0.0130679753377 0
0.6432939568629 -0.0196032399963 0
0.6605820247162 -0.0251962543792 0
0.6870845094762 -0.0282033673928 0
0.7155601455029 -0.0270378676449 0
0.7390283100374 -0.0235297332342 0
0.7544318799546 -0.0195109190515 0
0.7615752373778 -0.0158202084226 0
0.7613071525048 -0.0125935801974 0
0.7544587885407 -0.0096786222892 0
0.7415270339632 -0.0069157569763 0
0.7228374378148 -0.0043046450913 0
0.6988757558252 -0.0019951519465 0
0.6705584648170 -0.0002394184947 0
0.6392948508888 0.0007547409356 0
0.6065591541555 0.0011345169178 0
0.5736071422872 0.0009566264648 0
0.5416883711982 0.0001701501719 0
0.5120940910716 -0.0012129072330 0
0.4858213630401 -0.0029299740461 0
0.4634062102115 -0.0048133198254 0
0.4450449267246 -0.0067135946471 0
0.4306379301540 -0.0085039969741 0
0.4198356726631 -0.0100780272918 0
0.4121316822520 -0.0113957225611 0
0.4069452683601 -0.0124277751575 0
0.4036818651885 -0.0131905424756 0
0.4018135048707 -0.0137298251869 0
0.4009188668472 -0.0140993600951 0
0.4006816366664 -0.0143434160904 0
0.4008631951915 -0.0144902399038 0
0.4012780862495 -0.0145612035606 0
0.4017847672316 -0.0145759210174 0
0.4022841639489 -0.0145544155006 0
0.4027192680948 -0.0145159252661 0
0.4030699530741 -0.0144756349811 0
0.4033413449114 -0.0144419290778 0
0.4035488101542 -0.0144159809340 0
0.4037046186866 -0.0143937269461 0
0.4038101005467 -0.0143690201831 0
0.4038542987162 -0.0143365396467 0
0.4038176165507 -0.0142935426751 0
0.4036777614707 -0.0142402557127 0
0.4034154169440 -0.0141792299490 0
0.4030180141722 -0.0141142120711 0
0.4024811062334 -0.0140490357980 0
0.4018077220848 -0.0139868448865 0
0.4010065073318 -0.0139297377782 0
0.4000894800482 -0.0138787636596 0
0.3990700038414 -0.0138341291606 0
0.3979612828068 -0.0137954787646 0
0.3967754356554 -0.0137621549549 0
0.3955230578718 -0.0137333935607 0
0.3942131251536 -0.0137084469421 0
0.3928530970874 -0.0136866476910 0
0.3914491137951 -0.0136674317065 0
0.3900062168235 -0.0136503377436 0
0.3885285570902 -0.0136349957839 0
0.3870195740440 -0.0136211118010 0
0.3854821425561 -0.0136084528734 0
0.3839186900830 -0.0135968343251 0
0.3823312888835 -0.0135861093083 0
0.3807217283632 -0.0135761606656 0
0.3790915720323 -0.0135668947114 0
0.3774422027604 -0.0135582365254 0
0.3757748592152 -0.0135501264317 0
0.3740906657168 -0.0135425173766 0
0.3723906572305 -0.0135353730093 0
0.3706758008453 -0.0135286663207 0
0.3689470148333 -0.0135223787517 0
0.3672051862243 -0.0135164996988 0
0.3654511877586 -0.0135110264202 0
0.3636858950789 -0.0135059643624 0
0.3619102051386 -0.0135013279650 0
0.3601250570050 -0.0134971420884 0
0.3583314566071 -0.0134934442735 0
0.3565305076019 -0.0134902881884 0
0.3547234515151 -0.0134877488393 0
0.3529117219439 -0.0134859304825 0
0.3510970203324 -0.0134849788480 0
0.3492814255052 -0.0134851004259 0
0.3474675574845 -0.0134865938421 0
0.3456588315771 -0.0134899027355 0
0.3438598688452 -0.0134957088359 0
0.3420771910964 -0.0135051044414 0
0.3403204647046 -0.0135199321819 0
0.3386048789787 -0.0135435041670 0
0.3369560663147 -0.0135822551680 0
0.3354212463727 -0.0136498985251 0
0.3340967330521 -0.0137785421902 0
0.3331863670774 -0.0140364365822 0
0.3324668644347 -0.0139566815264 0
0.9813477990864 0.0293390299373 0
0.9551503836760 0.0275726877305 0
0.9397745116365 0.0250187779119 0
0.9242312600337 0.0214604767434 0
0.9094633973060 0.0165088981516 0
0.8966346604123 0.0095390068387 0
0.8866216858240 -0.0004460435926 0
0.8805527321039 -0.0136634453736 0
0.8806031454187 -0.0297784000867 0
0.8894338186117 -0.0475818181652 0
0.9090935082077 -0.0641420409271 0
0.9389346979145 -0.0742848072639 0
0.9717452136895 -0.0705966394232 0
0.9995367608979 -0.0602531693489 0
1.0202587459233 -0.0489444853452 0
1.0345351889056 -0.0388182816995 0
1.0433631429521 -0.0300245525655 0
1.0473387113349 -0.0220062174619 0
1.0465715137908 -0.0142423259349 0
1.0409663125368 -0.0067427942790 0
1.0307009656175 -0.0000516478876 0
1.0162796069738 0.0052666019804 0
0.9983123320366 0.0087576586209 0
0.9777224232825 0.0104622632690 0
0.9556698016857 0.0105266272272 0
0.9329964193921 0.0091129052916 0
0.9100000355267 0.0064890267941 0
0.8867749529450 0.0031261077836 0
0.8634466887332 -0.0006154967742 0
0.8401330037419 -0.0044547419555 0
0.8170254929926 -0.0081892816537 0
0.7944384527098 -0.0116693809891 0
0.7726934520271 -0.0147586377793 0
0.7520429410884 -0.0173904018218 0
0.7327315300995 -0.0195981055827 0
0.7149914500990 -0.0214610788335 0
0.6990184225074 -0.0230649911109 0
0.6849494957940 -0.0244654228440 0
0.6728337937412 -0.0256697618006 0
0.6626212193370 -0.0266772516499 0
0.6541793503205 -0.0274937837880 0
0.6473191136583 -0.0281398671309 0
0.6418247084573 -0.0286485697194 0
0.6374801980906 -0.0290555426730 0
0.6340865202128 -0.0293880223990 0
0.6314671599910 -0.0296589324556 0
0.6294652957041 -0.0298679490698 0
0.6279375491304 -0.0300075222081 0
0.6267490865289 -0.0300702408930 0
0.6257726248949 -0.0300544361379 0
0.6248913232579 -0.0299664903887 0
0.6240037390876 -0.0298199483415 0
0.6230284885529 -0.0296325825068 0
0.6219067940885 -0.0294228803679 0
0.6206021913600 -0.0292071350750 0
0.6190977228164 -0.0289977441994 0
0.6173915908490 -0.0288027547050 0
0.6154923861491 -0.0286263270109 0
0.6134147727455 -0.0284696713694 0
0.6111761165878 -0.0283320732535 0
0.6087941758151 -0.0282117698569 0
0.6062857260353 -0.0281065833340 0
0.6036658862006 -0.0280143152208 0
0.6009479036964 -0.0279329541680 0
0.5981432027490 -0.0278607592177 0
0.5952615601051 -0.0277962711506 0
0.5923113248132 -0.0277382885772 0
0.5892996373504 -0.0276858309904 0
0.5862326276514 -0.0276381005302 0
0.5831155853254 -0.0275944477015 0
0.5799531021915 -0.0275543427185 0
0.5767491901900 -0.0275173524602 0
0.5735073785707 -0.0274831223239 0
0.5702307941670 -0.0274513621317 0
0.5669222281136 -0.0274218352813 0
0.5635841918236 -0.0273943504906 0
0.5602189645478 -0.0273687556389 0
0.5568286344394 -0.0273449333526 0
0.5534151347389 -0.0273227980905 0
0.5499802764719 -0.0273022946393 0
0.5465257789572 -0.0272833980284 0
0.5430532993795 -0.0272661150061 0
0.5395644627662 -0.0272504874114 0
0.5360608939305 -0.0272365980082 0
0.5325442533246 -0.0272245797122 0
0.5290162793901 -0.0272146297435 0
0.5254788410192 -0.0272070311649 0
0.5219340053824 -0.0272021859465 0
0.5183841289429 -0.0272006665629 0
0.5148319835651 -0.0272032984800 0
0.5112809360440 -0.0272112960279 0
0.5077352090129 -0.0272264943990 0
0.5042002638557 -0.0272517626226 0
0.5006833545068 -0.0272917745722 0
0.4971942647898 -0.0273545270846 0
0.4937459809800 -0.0274545060391 0
0.4903537996680 -0.0276196780739 0
0.4870261068333 -0.0279072692324 0
0.4837261593754 -0.0284186497373 0
0.4804468114000 -0.0282827739152 0
0.9823861767628 0.0377311841216 0
0.9589534472421 0.0362700453802 0
0.9475041540056 0.0338065972398 0
0.9364957943031 0.0299025164126 0
0.9261415074942 0.0239625521572 0
0.9168467796038 0.0151822730066 0
0.9093555426219 0.0026963062871 0
0.9049740053906 -0.0146036529766 0
0.9060380958543 -0.0374300465572 0
0.9163729633771 -0.0653696616095 0
0.9407549725606 -0.0950114364263 0
0.9817703130901 -0.1170998284227 0
1.0245516394003 -0.1058856612327 0
1.0539418786051 -0.0858854740170 0
1.0722984296107 -0.0673371424382 0
1.0839070487951 -0.0521366798793 0
1.0913539561748 -0.0394476915449 0
1.0956600355680 -0.0278642855933 0
1.0967368886845 -0.0162249416332 0
1.0939297953108 -0.0044603783521 0
1.0865831135905 0.0065521521251 0
1.0747973516270 0.0155711012982 0
1.0595926277253 0.0218620094485 0
1.0422232646928 0.0252348818797 0
1.0237870945408 0.0259918611937 0
1.0050744048961 0.0247229831768 0
0.9865468363221 0.0220829469118 0
0.9683863895072 0.0186069884322 0
0.9505936084719 0.0147315690057 0
0.9330830009392 0.0107491669649 0
0.9157008065623 0.0068454999846 0
0.8982350456880 0.0031267482824 0
0.8805555989395 -0.0003103222632 0
0.8626899144655 -0.0034419771100 0
0.8447183785522 -0.0063008247111 0
0.8267566021744 -0.0089883413331 0
0.8090318772440 -0.0116382099163 0
0.7918806012100 -0.0143050678940 0
0.7756687423534 -0.0169427824275 0
0.7607500517543 -0.0195001089961 0
0.7474334690672 -0.0219147662868 0
0.7359296786703 -0.0241308569432 0
0.7263188177585 -0.0261110652356 0
0.7185486174437 -0.0278377203565 0
0.7124582255218 -0.0293057855333 0
0.7078152279500 -0.0305147108014 0
0.7043532686953 -0.0314643469565 0
0.7018022725706 -0.0321560454469 0
0.6999086770302 -0.0325968804579 0
0.6984468632556 -0.0328038260047 0
0.6972245022633 -0.0328054379396 0
0.6960843298138 -0.0326401865186 0
0.6949038789926 -0.0323521176477 0
0.6935937506552 -0.0319854078511 0
0.6920945230438 -0.0315794658072 0
0.6903724141256 -0.0311657102919 0
0.6884140725128 -0.0307663849498 0
0.6862211015177 -0.0303951069848 0
0.6838049540095 -0.0300584912284 0
0.6811826733937 -0.0297581582009 0
0.6783736992609 -0.0294926125248 0
0.6753977178044 -0.0292587220594 0
0.6722733835296 -0.0290527335142 0
0.6690176803027 -0.0288708843027 0
0.6656457011287 -0.0287097182846 0
0.6621706723371 -0.0285662115430 0
0.6586041014876 -0.0284377906805 0
0.6549559741638 -0.0283222986833 0
0.6512349579085 -0.0282179408552 0
0.6474485927729 -0.0281232279035 0
0.6436034602663 -0.0280369239292 0
0.6397053290263 -0.0279580020226 0
0.6357592786247 -0.0278856077276 0
0.6317698041434 -0.0278190296098 0
0.6277409044532 -0.0277576758696 0
0.6236761569595 -0.0277010559753 0
0.6195787812794 -0.0276487664418 0
0.6154516940011 -0.0276004800755 0
0.6112975563502 -0.0275559382216 0
0.6071188163380 -0.0275149457175 0
0.6029177468043 -0.0274773684557 0
0.5986964806346 -0.0274431337008 0
0.5944570443871 -0.0274122335251 0
0.5902013915962 -0.0273847321026 0
0.5859314371031 -0.0273607780890 0
0.5816490939587 -0.0273406240804 0
0.5773563146811 -0.0273246563530 0
0.5730551388974 -0.0273134400284 0
0.5687477495208 -0.0273077881689 0
0.5644365390303 -0.0273088689530 0
0.5601241848109 -0.0273183751782 0
0.5558137242219 -0.0273387983323 0
0.5515085961961 -0.0273738821135 0
0.5472125503017 -0.0274293887021 0
0.5429291453613 -0.0275144098335 0
0.5386600811914 -0.0276435903636 0
0.5344003738679 -0.0278406560942 0
0.5301255960509 -0.0281424768158 0
0.5257657214169 -0.0285860994755 0
0.5213693651489 -0.0285031578127 0
0.9821624817781 0.0453629663704 0
0.9582336405417 0.0436104374348 0
0.9461512507719 0.0408774649567 0
0.9342258659132 0.0366848316516 0
0.9223954557485 0.0303343078057 0
0.9107132067801 0.0208373817664 0
0.8995889539866 0.0068640062372 0
0.8901977457418 -0.0134684400266 0
0.8853229175592 -0.0425602216888 0
0.8908229921156 -0.0825704177122 0
0.9170704810907 -0.1326165319200 0
0.9767162242903 -0.1809967326196 0
1.0322618029568 -0.1413121917817 0
1.0522553794654 -0.1041021637457 0
1.0565460748929 -0.0778095440068 0
1.0556468236092 -0.0592113521482 0
1.0533900882291 -0.0447688462654 0
1.0508342713985 -0.0317283785416 0
1.0474808617043 -0.0177877347986 0
1.0413510529275 -0.0021081518505 0
1.0303493153357 0.0137734386377 0
1.0144975251632 0.0265931826139 0
0.9955137792037 0.0351974838549 0
0.9751583876830 0.0395574936542 0
0.9547863483275 0.0403385581956 0
0.9352085348248 0.0385624001864 0
0.9167405828416 0.0352209912210 0
0.8993700529991 0.0310794954336 0
0.8829235663892 0.0266640157920 0
0.8671894164684 0.0222934619496 0
0.8519904022836 0.0181586319173 0
0.8372254198605 0.0143439397558 0
0.8228758299123 0.0108145475408 0
0.8089909413432 0.0075153122882 0
0.7956954649921 0.0043727190103 0
0.7831529617772 0.0012570615260 0
0.7714339395579 -0.0019544992104 0
0.7604656625776 -0.0052955823119 0
0.7502916537546 -0.0088771807965 0
0.7411628391822 -0.0126730978632 0
0.7333405727364 -0.0165639130722 0
0.7270050177451 -0.0203833854245 0
0.7222079038358 -0.0239628273413 0
0.7188627290815 -0.0271633447292 0
0.7167666499124 -0.0298911941372 0
0.7156428762931 -0.0320987245274 0
0.7151890548235 -0.0337773494340 0
0.7151189797815 -0.0349484575217 0
0.7151902904802 -0.0356554195874 0
0.7152166672732 -0.0359572988142 0
0.7150674181171 -0.0359235514934 0
0.7146594010623 -0.0356288546204 0
0.7139461116594 -0.0351477198639 0
0.7129073013230 -0.0345492267093 0
0.7115406921158 -0.0338926323682 0
0.7098559688948 -0.0332246027644 0
0.7078705459604 -0.0325784171438 0
0.7056065036027 -0.0319749697518 0
0.7030882759383 -0.0314249881985 0
0.7003408892234 -0.0309317507198 0
0.6973886774151 -0.0304936945137 0
0.6942544333696 -0.0301065466645 0
0.6909589358430 -0.0297648519205 0
0.6875207689550 -0.0294629420621 0
0.6839563433432 -0.0291954731933 0
0.6802800381102 -0.0289576708204 0
0.6765044019530 -0.0287453995590 0
0.6726403724070 -0.0285551401168 0
0.6686974891081 -0.0283839251961 0
0.6646840889567 -0.0282292632277 0
0.6606074785656 -0.0280890643462 0
0.6564740835555 -0.0279615746646 0
0.6522895763429 -0.0278453205845 0
0.6480589849392 -0.0277390628471 0
0.6437867854557 -0.0276417592355 0
0.6394769808787 -0.0275525346823 0
0.6351331684383 -0.0274706575970 0
0.6307585975755 -0.0273955214608 0
0.6263562202472 -0.0273266309541 0
0.6219287350737 -0.0272635921275 0
0.6174786266017 -0.0272061063630 0
0.6130082008112 -0.0271539681509 0
0.6085196178617 -0.0271070670006 0
0.6040149229463 -0.0270653941880 0
0.5994960759940 -0.0270290555728 0
0.5949649807734 -0.0269982924640 0
0.5904235136108 -0.0269735136417 0
0.5858735511611 -0.0269553433333 0
0.5813169951314 -0.0269446926141 0
0.5767557885115 -0.0269428657709 0
0.5721919107261 -0.0269517194135 0
0.5676273239582 -0.0269739011016 0
0.5630638106744 -0.0270132055253 0
0.5585025750138 -0.0270750940290 0
0.5539433449776 -0.0271674034271 0
0.5493824637861 -0.0273011392946 0
0.5448091149257 -0.0274907461401 0
0.5401988776986 -0.0277515306191 0
0.5355079349011 -0.0280814403578 0
0.5307666154889 -0.0280311435741 0
0.9818372787941 0.0535070519570 0
0.9571494203886 0.0516099781275 0
0.9439991464040 0.0488767656381 0
0.9304883614788 0.0448743103812 0
0.9162669024730 0.0389082602742 0
0.9009631030439 0.0298987600914 0
0.8843400513519 0.0161484633393 0
0.8667471101929 -0.0051193408418 0
0.8502260210705 -0.0384914489461 0
0.8414729473981 -0.0911547099104 0
0.8586381165420 -0.1721023737181 0
0.9408549118285 -0.2814675811603 0
0.9977713884108 -0.1533575844523 0
0.9751366254570 -0.0971433223539 0
0.9452660563511 -0.0684454976696 0
0.9193931367141 -0.0511397025513 0
0.8983997102097 -0.0386920110928 0
0.8820577712173 -0.0277189775498 0
0.8702040360574 -0.0151554730792 0
0.8580073332870 0.0048126545200 0
0.8396312681653 0.0267202350846 0
0.8161748034035 0.0427824085413 0
0.7912785546517 0.0524112360494 0
0.7673474672394 0.0561261032793 0
0.7459410557492 0.0552114822999 0
0.7277255271034 0.0514115729307 0
0.7126129542136 0.0461619502876 0
0.7001640564362 0.0404183083852 0
0.6898701533855 0.0347312036602 0
0.6812975719225 0.0293608580113 0
0.6741284782044 0.0244164353235 0
0.6681515470031 0.0198935519031 0
0.6632741025339 0.0156584610620 0
0.6594820028013 0.0116182120728 0
0.6567743084894 0.0076544000535 0
0.6551040163166 0.0036889416824 0
0.6544107103899 -0.0003532569835 0
0.6549317900022 -0.0046978269538 0
0.6569700841516 -0.0094333251701 0
0.6605216697827 -0.0144632652871 0
0.6653994854472 -0.0195773198315 0
0.6712996551432 -0.0245153500800 0
0.6778571019798 -0.0290255738893 0
0.6846903117911 -0.0329078341477 0
0.6914347807835 -0.0360369412426 0
0.6977678417770 -0.0383667210984 0
0.7034275768280 -0.0399199504262 0
0.7082260250777 -0.0407707524939 0
0.7120548852887 -0.0410250345066 0
0.7148820758842 -0.0408027665554 0
0.7167395065991 -0.0402241423401 0
0.7177048240314 -0.0394001692730 0
0.7178813362819 -0.0384271743411 0
0.7173801759607 -0.0373842300544 0
0.7163073178270 -0.0363325592111 0
0.7147561678345 -0.0353162965342 0
0.7128049074320 -0.0343642570737 0
0.7105170244753 -0.0334924401784 0
0.7079434449426 -0.0327069408355 0
0.7051250914231 -0.0320068860675 0
0.7020952085588 -0.0313870520549 0
0.6988812069534 -0.0308399434334 0
0.6955060208616 -0.0303572696448 0
0.6919890767169 -0.0299308754806 0
0.6883469853675 -0.0295532475703 0
0.6845940497753 -0.0292177307647 0
0.6807426513516 -0.0289185685085 0
0.6768035546490 -0.0286508498591 0
0.6727861544208 -0.0284104159780 0
0.6686986796804 -0.0281937562616 0
0.6645483641426 -0.0279979093323 0
0.6603415895304 -0.0278203753561 0
0.6560840065677 -0.0276590414278 0
0.6517806374830 -0.0275121195536 0
0.6474359631258 -0.0273780958557 0
0.6430539972816 -0.0272556894176 0
0.6386383503525 -0.0271438192955 0
0.6341922842210 -0.0270415784364 0
0.6297187598234 -0.0269482135232 0
0.6252204787088 -0.0268631100575 0
0.6206999196533 -0.0267857822442 0
0.6161593712008 -0.0267158675401 0
0.6116009608144 -0.0266531260474 0
0.6070266811061 -0.0265974452828 0
0.6024384133286 -0.0265488513477 0
0.5978379478820 -0.0265075281029 0
0.5932270008635 -0.0264738468107 0
0.5886072244120 -0.0264484098262 0
0.5839802063151 -0.0264321134206 0
0.5793474501690 -0.0264262366365 0
0.5747103197660 -0.0264325648500 0
0.5700699177136 -0.0264535569883 0
0.5654268444722 -0.0264925599701 0
0.5607807455361 -0.0265540518374 0
0.5561295028670 -0.0266438290103 0
0.5514678949166 -0.0267688817266 0
0.5467856822800 -0.0269363040813 0
0.5420658367458 -0.0271497196800 0
0.5372864665171 -0.0273961164518 0
0.5324604572790 -0.0273387843771 0
0.9815835296149 0.0621914914530 0
0.9562988579811 0.0603346049517 0
0.9422774971223 0.0579606860991 0
0.9274008706085 0.0547336611095 0
0.9109975926844 0.0500803502260 0
0.8921571599953 0.0430429719921 0
0.8696664425412 0.0319587868307 0
0.8420220581736 0.0137401893381 0
0.8079118139319 -0.0176467191004 0
0.7690063725640 -0.0750698110326 0
0.7418655448858 -0.1864283106897 0
0.8067410857970 -0.4119794781647 0
0.7969406154325 -0.0743722821250 0
0.6679927857621 -0.0422031965104 0
0.5881514751434 -0.0285395298072 0
0.5309561340444 -0.0210669570055 0
0.4872604119646 -0.0159398840042 0
0.4537857606592 -0.0115272894288 0
0.4306758643234 -0.0062661109552 0
0.4251651084406 0.0048985772060 0
0.4238093536736 0.0374989954927 0
0.4145775771840 0.0549609886512 0
0.4060876833479 0.0638413714213 0
0.4002123490609 0.0649636094162 0
0.3985697562253 0.0603346930054 0
0.4013706240675 0.0531236896927 0
0.4076248695948 0.0451659141915 0
0.4163032335944 0.0373818154342 0
0.4266436785893 0.0301725611141 0
0.4381695413099 0.0236114058698 0
0.4505890782703 0.0177137723798 0
0.4636527108610 0.0124302562395 0
0.4770593109218 0.0076095049116 0
0.4907455950495 0.0028808868781 0
0.5050397814698 -0.0019740459698 0
0.5203935138292 -0.0070055377485 0
0.5371877765717 -0.0122380545751 0
0.5552957684622 -0.0177518828230 0
0.5741253635975 -0.0234076887673 0
0.5930529560061 -0.0290211934136 0
0.6115204048028 -0.0343600335180 0
0.6290791680105 -0.0391793715194 0
0.6453957142997 -0.0432623465515 0
0.6602365388049 -0.0464518967990 0
0.6734467141321 -0.0486689526730 0
0.6849315717983 -0.0499165092280 0
0.6946462983092 -0.0502714046490 0
0.7025933210053 -0.0498668187899 0
0.7088236792291 -0.0488693224473 0
0.7134372038488 -0.0474548992233 0
0.7165774522545 -0.0457882659516 0
0.7184201575710 -0.0440086253295 0
0.7191569982582 -0.0422229421100 0
0.7189783902909 -0.0405057755906 0
0.7180591030199 -0.0389034442634 0
0.7165491155257 -0.0374401186876 0
0.7145701878319 -0.0361240307509 0
0.7122170449568 -0.0349528162701 0
0.7095613377168 -0.0339176734210 0
0.7066566110808 -0.0330063907484 0
0.7035430370626 -0.0322054353985 0
0.7002512865730 -0.0315013082409 0
0.6968053927187 -0.0308813492730 0
0.6932247277157 -0.0303341485951 0
0.6895253121243 -0.0298496914339 0
0.6857206688697 -0.0294193388895 0
0.6818223865330 -0.0290357193233 0
0.6778405035879 -0.0286925810346 0
0.6737837831754 -0.0283846371508 0
0.6696599195534 -0.0281074194559 0
0.6654756999377 -0.0278571486637 0
0.6612371354614 -0.0276306233080 0
0.6569495694912 -0.0274251266043 0
0.6526177685326 -0.0272383494376 0
0.6482459992878 -0.0270683272753 0
0.6438380944328 -0.0269133888392 0
0.6393975091089 -0.0267721146910 0
0.6349273696865 -0.0266433041310 0
0.6304305160451 -0.0265259492128 0
0.6259095383997 -0.0264192149535 0
0.6213668094696 -0.0263224251215 0
0.6168045125795 -0.0262350532935 0
0.6122246660929 -0.0261567191428 0
0.6076291442739 -0.0260871902616 0
0.6030196943370 -0.0260263901618 0
0.5983979488866 -0.0259744135279 0
0.5937654320982 -0.0259315502460 0
0.5891235566073 -0.0258983202487 0
0.5844736058388 -0.0258755215750 0
0.5798166928762 -0.0258642939333 0
0.5751536812183 -0.0258661986048 0
0.5704850442120 -0.0258833106978 0
0.5658106285363 -0.0259183073890 0
0.5611292763219 -0.0259745075821 0
0.5564382641238 -0.0260557596687 0
0.5517325754794 -0.0261659651579 0
0.5470042325584 -0.0263078595964 0
0.5422424401685 -0.0264804593786 0
0.5374363545913 -0.0266707750125 0
0.5325912827518 -0.0265896068158 0
0.9814902308719 0.0711998408869 0
0.9559587469279 0.0695227039963 0
0.9415011441990 0.0678013073889 0
0.9258341281552 0.0658487929354 0
0.9080275670968 0.0633427538759 0
0.8866900889259 0.0597283032342 0
0.8596097908971 0.0539880871155 0
0.8230399315704 0.0440925325886 0
0.7701422782720 0.0256566572111 0
0.6865142951209 -0.0115603099476 0
0.5376462294380 -0.0932144970111 0
0.2203800500745 -0.2771803475820 0
0.0000000000000 0.0000000000000 0
0.0000000000000 0.0000000000000 0
0.0000000000000 0.0000000000000 0
0.0000000000000 0.0000000000000 0
0.0000000000000 0.0000000000000 0
0.0000000000000 0.0000000000000 0
0.0000000000000 0.0000000000000 0
0.0000000000000 0.0000000000000 0
0.0119527610077 0.0160030723502 0
0.0321379539360 0.0478418402299 0
0.0489916276086 0.0556026416942 0
0.0699271763199 0.0515944539020 0
0.0980776506876 0.0414114720003 0
0.1311037607900 0.0310567086577 0
0.1661216909350 0.0211605063175 0
0.2021567185121 0.0121030304870 0
0.2387285618762 0.0041148471163 0
0.2753266924678 -0.0027983062058 0
0.3115057363809 -0.0087868925566 0
0.3471096585699 -0.0140438340655 0
0.3822481674325 -0.0187768798401 0
0.4168710307841 -0.0233729753880 0
0.4505848216479 -0.0280793412043 0
0.4829605915588 -0.0329994926892 0
0.5136362394242 -0.0381010669643 0
0.5423617453218 -0.0431518551890 0
0.5689846828924 -0.0479818031490 0
0.5933783403719 -0.0524319712245 0
0.6154503830293 -0.0563378427801 0
0.6351610661970 -0.0595381100150 0
0.6525292868446 -0.0618944577619 0
0.6676247428368 -0.0633120507097 0
0.6805518824558 -0.0637553654589 0
0.6914328717026 -0.0632566290565 0
0.7003953754817 -0.0619151113282 0
0.7075678939272 -0.0598864314787 0
0.7130818785749 -0.0573628467892 0
0.7170771468390 -0.0545480012905 0
0.7197062023019 -0.0516316032297 0
0.7211341651016 -0.0487696700199 0
0.7215334162488 -0.0460740108312 0
0.7210745075595 -0.0436114549699 0
0.7199162698408 -0.0414105077867 0
0.7181979548510 -0.0394717416224 0
0.7160350518763 -0.0377784704871 0
0.7135189234211 -0.0363054970692 0
0.7107193028165 -0.0350251295227 0
0.7076882782358 -0.0339106788039 0
0.7044645460709 -0.0329381092243 0
0.7010771578181 -0.0320865548902 0
0.6975484373044 -0.0313382481183 0
0.6938960630393 -0.0306782008895 0
0.6901344682271 -0.0300938193863 0
0.6862757496637 -0.0295745319793 0
0.6823302522999 -0.0291114593143 0
0.6783069514497 -0.0286971323061 0
0.6742137125322 -0.0283252552540 0
0.6700574769455 -0.0279905087251 0
0.6658444023120 -0.0276883865512 0
0.6615799731897 -0.0274150616103 0
0.6572690914735 -0.0271672757029 0
0.6529161519450 -0.0269422494223 0
0.6485251064006 -0.0267376085813 0
0.6440995186164 -0.0265513243185 0
0.6396426117913 -0.0263816645447 0
0.6351573096796 -0.0262271548649 0
0.6306462723212 -0.0260865475075 0
0.6261119271112 -0.0259587971578 0
0.6215564957184 -0.0258430429060 0
0.6169820171892 -0.0257385957953 0
0.6123903673576 -0.0256449317312 0
0.6077832743972 -0.0255616897654 0
0.6031623299873 -0.0254886759782 0
0.5985289950242 -0.0254258734502 0
0.5938845980034 -0.0253734588923 0
0.5892303230071 -0.0253318265275 0
0.5845671825213 -0.0253016193528 0
0.5798959678245 -0.0252837666655 0
0.5752171664668 -0.0252795237382 0
0.5705308328786 -0.0252905033004 0
0.5658363961584 -0.0253186763732 0
0.5611323939182 -0.0253662983824 0
0.5564161446764 -0.0254356821746 0
0.5516834368553 -0.0255286965674 0
0.5469284521894 -0.0256458462777 0
0.5421443621496 -0.0257848060795 0
0.5373252500181 -0.0259347338367 0
0.5324741433012 -0.0258277043863 0
0.9816130110972 0.0801806728039 0
0.9563019938522 0.0787629081022 0
0.9419913144108 0.0778598538391 0
0.9263433955438 0.0774658719993 0
0.9083429887038 0.0775938634659 0
0.8864303220785 0.0782923463804 0
0.8580156325428 0.0796677155815 0
0.8184580415318 0.0819135399658 0
0.7587869603696 0.0853481499209 0
0.6607913376037 0.0907119100835 0
0.4869896851939 0.0981200335947 0
0.1874145017079 0.0996520755101 0
0.0000000000000 0.0000000000000 0
0.0000000000000 0.0000000000000 0
0.0000000000000 0.0000000000000 0
0.0000000000000 0.0000000000000 0
0.0000000000000 0.0000000000000 0
0.0000000000000 0.0000000000000 0
0.0000000000000 0.0000000000000 0
0.0000000000000 0.0000000000000 0
-0.0534297096997 0.0292586525255 0
-0.1010543973498 0.0309643762369 0
-0.0681250652211 0.0184642850534 0
-0.0075996413410 0.0051508850451 0
0.0574721130043 -0.0067040594352 0
0.1190541435799 -0.0166803804341 0
0.1770200839723 -0.0254390420742 0
0.2311675349702 -0.0330194285595 0
0.2814768665372 -0.0394034870243 0
0.3282257909717 -0.0446222558611 0
0.3717708257615 -0.0489237846830 0
0.4123938298303 -0.0526037773537 0
0.4502820978148 -0.0559269684619 0
0.4855699078103 -0.0590245580462 0
0.5183415650009 -0.0620325555471 0
0.5485878292469 -0.0650452250575 0
0.5762391831831 -0.0680455871373 0
0.6012420618178 -0.0709055474864 0
0.6235891046784 -0.0734851488883 0
0.6433060768971 -0.0756502722407 0
0.6604524634838 -0.0772751375049 0
0.6751288815230 -0.0782471742779 0
0.6874805528272 -0.0784756932654 0
0.6976920563968 -0.0779023808240 0
0.7059739450951 -0.0765118678798 0
0.7125450477521 -0.0743404879252 0
0.7176154728663 -0.0714803976719 0
0.7213746324638 -0.0680757922733 0
0.7239864429200 -0.0643093117618 0
0.7255911522470 -0.0603799350985 0
0.7263111275351 -0.0564771871580 0
0.7262572210017 -0.0527582969591 0
0.7255330948379 -0.0493339281915 0
0.7242364985251 -0.0462648298566 0
0.7224580582249 -0.0435679995703 0
0.7202789943863 -0.0412284649610 0
0.7177691799640 -0.0392123154496 0
0.7149863767890 -0.0374777562639 0
0.7119767878509 -0.0359827175345 0
0.7087765723206 -0.0346890451977 0
0.7054137967615 -0.0335641164805 0
0.7019103691206 -0.0325809026319 0
0.6982836838347 -0.0317173070593 0
0.6945478829718 -0.0309552994687 0
0.6907147553967 -0.0302801030431 0
0.6867943488592 -0.0296795234682 0
0.6827953780873 -0.0291434248584 0
0.6787254981782 -0.0286633273423 0
0.6745914930098 -0.0282320969634 0
0.6703994110438 -0.0278437037347 0
0.6661546683175 -0.0274930302558 0
0.6618621302804 -0.0271757185596 0
0.6575261792508 -0.0268880465477 0
0.6531507714727 -0.0266268277367 0
0.6487394861843 -0.0263893296860 0
0.6442955682434 -0.0261732075508 0
0.6398219653625 -0.0259764500185 0
0.6353213607001 -0.0257973355087 0
0.6307962013471 -0.0256343969758 0
0.6262487231102 -0.0254863940461 0
0.6216809718347 -0.0253522915579 0
0.6170948213521 -0.0252312438116 0
0.6124919879590 -0.0251225840916 0
0.6078740410916 -0.0250258191805 0
0.6032424095127 -0.0249406287404 0
0.5985983818924 -0.0248668694569 0
0.5939431000365 -0.0248045837790 0
0.5892775421401 -0.0247540127060 0
0.5846024923947 -0.0247156112355 0
0.5799184920144 -0.0246900634187 0
0.5752257656310 -0.0246782908210 0
0.5705241169639 -0.0246814427839 0
0.5658127906296 -0.0247008482410 0
0.5610903068591 -0.0247378965594 0
0.5563542993162 -0.0247938013633 0
0.5516014308371 -0.0248691964958 0
0.5468275278658 -0.0249635414411 0
0.5420281286044 -0.0250743442682 0
0.5371996231215 -0.0251925756441 0
0.5323447051996 -0.0250627290149 0
0.9819717514493 0.0887120840419 0
0.9573891667311 0.0875668919093 0
0.9438569672231 0.0874909104554 0
0.9291133134142 0.0886486356706 0
0.9122771348837 0.0913735975909 0
0.8920422165201 0.0962987086361 0
0.8663287099992 0.1046293522710 0
0.8315823807108 0.1187505770621 0
0.7811995746175 0.1436764213302 0
0.7013918179219 0.1907818055455 0
0.5571037556714 0.2873822170633 0
0.2312189985461 0.4866008483846 0
0.0000000000000 0.0000000000000 0
0.0000000000000 0.0000000000000 0
0.0000000000000 0.0000000000000 0
0.0000000000000 0.0000000000000 0
0.0000000000000 0.0000000000000 0
0.0000000000000 0.0000000000000 0
0.0000000000000 0.0000000000000 0
0.0000000000000 0.0000000000000 0
0.0355429856703 0.0204966906404 0
0.1082952971182 -0.0129581877468 0
0.1751568180250 -0.0383029610025 0
0.2310357571661 -0.0542776248960 0
0.2823312252375 -0.0634366436906 0
0.3309010223025 -0.0703078578182 0
0.3761317304288 -0.0756801283229 0
0.4178399143264 -0.0797952957258 0
0.4561386721512 -0.0828801999781 0
0.4912626856331 -0.0851119841836 0
0.5234896845351 -0.0867063229183 0
0.5530604575039 -0.0878871353819 0
0.5801514040861 -0.0888425843338 0
0.6048899067186 -0.0896852102309 0
0.6273648470744 -0.0904871066646 0
0.6476177519593 -0.0912749467290 0
0.6656561053360 -0.0920113099145 0
0.6814853229973 -0.0926015015814 0
0.6951295620636 -0.0929327809718 0
0.7066365165672 -0.0928966975402 0
0.7160819005552 -0.0923994265843 0
0.7235757373098 -0.0913668542527 0
0.7292667712186 -0.0897476054775 0
0.7333412475811 -0.0875157866098 0
0.7360143821730 -0.0846748899614 0
0.7375154068709 -0.0812631935681 0
0.7380692826465 -0.0773587844433 0
0.7378793194195 -0.0730804030744 0
0.7371146118481 -0.0685804139775 0
0.7359045484559 -0.0640289220967 0
0.7343404074650 -0.0595920678401 0
0.7324821418567 -0.0554104805904 0
0.7303675278824 -0.0515840146970 0
0.7280210227418 -0.0481662788495 0
0.7254606021231 -0.0451687131366 0
0.7227019879896 -0.0425710205717 0